     406
 i =      410, time =      205.000, E =    -12769.3112198527
  P        23.4883022396       23.4378803340       30.6462694377
  P        22.2706735060       28.4616900822       26.5665472140
 In        21.8725716660       26.9291684976       28.6280461923
  P        20.0453295324       27.3917668302       30.4303565990
  P        23.2139045679       28.7587277775       31.8180459081
  P        23.7319491398       25.1035618700       29.1889653702
 In        21.2675160952       27.2438168352       32.7806027402
  P        20.3903804355       29.4539378780       34.0508523696
  P        22.6382151163       28.5830119285       37.7797823487
  P        22.5339802704       25.7299804822       34.5356191484
  P        22.4126038850       34.6943160271       25.8417737948
  P        24.1437047618       31.0257982233       22.6074750402
 In        21.4094328105       33.6127033842       27.8902595852
 In        21.2600109346       29.8012245726       30.5361575605
  P        20.3117811582       30.9465330788       32.6648058812
  P        19.5374705489       34.2584192077       29.4096624960
  P        22.5424710407       34.6847079787       32.0162639996
  P        22.4867570598       31.5697201967       29.0957928759
 In        21.2615351019       33.2872938439       33.8080834622
 In        21.4020102250       30.5282391694       36.4195314060
  P        20.0057227732       32.4411665864       37.3027553894
  P        19.7922894385       34.0750766423       35.8148413126
  P        23.0108299035       34.8478068195       38.0654367407
  P        23.0141791068       31.7269982650       34.8760891509
 In        21.8106123027       32.9484895216       39.0325915725
  P        22.6234572117       31.4401952692       40.8513636152
 In        20.7396240768       36.2179932255       30.4892871862
  P        19.3668548221       37.5678594429       32.1217961163
  P        22.5644114627       40.8917318645       31.8151063872
  P        22.4052693568       37.5331488554       28.8330724174
 In        21.3005528719       38.8247264997       32.8943272030
 In        21.7231625132       35.8326074744       36.2162863965
  P        23.1890856558       40.2076396416       38.6960185024
  P        22.7531474869       37.6813956568       34.7734758425
  P        23.3791444566       38.6448293969       40.3148355131
  P        29.0061432879       23.2023232395       25.3718936845
 In        27.6556472743       21.9709034534       27.2262992387
  P        25.2951341306       22.5256654882       29.7290018796
  P        28.8214097559       22.9078774884       31.8707713378
  P        27.7356807215       20.2555753729       29.0469974631
 In        27.2943467220       21.6159117826       33.5528202689
  P        25.3165347170       22.5140229789       34.8346643611
  P        28.5065538890       22.5029159196       37.9022061138
  P        29.3803515041       20.1237876823       34.0692108154
 In        27.8851309953       28.7416684288       21.8437726868
 In        27.6880748824       25.0423646625       24.1488702531
 In        24.1670140674       27.7880159572       24.9712690218
  P        25.7539058897       25.7769744459       25.5866289071
  P        25.2773695739       29.2100584772       23.1096849097
  P        28.8002016407       28.5632805506       25.8322135471
  P        29.7837196145       25.1329861850       22.7656274665
 In        25.4848149202       23.9735271488       27.5028044271
 In        27.3418509128       27.1910511837       27.3799986872
 In        27.2033107107       24.1402709261       30.4675462565
 In        24.7457459639       27.1370275254       30.5312100085
  P        26.0896754670       25.7746296456       32.0923929845
  P        25.7542866399       28.6580314754       28.7660615880
  P        28.6991993194       28.7286137216       31.8132287911
  P        28.6741245401       25.6217453084       28.8903599851
 In        24.2879497027       24.3500108769       33.1787156836
 In        27.4140121920       27.3117272358       33.5570494517
 In        27.1125282415       23.9861735097       36.3028993462
 In        23.9391102045       27.2393718160       36.1568449918
  P        25.4427986636       25.6471185750       37.6352483920
  P        25.8198337638       28.7799353713       34.8609744234
  P        28.7682704099       28.7946530414       37.6402603911
  P        28.6954072652       25.6632772658       35.0156599617
 In        23.3627102769       23.6626616707       36.6920732966
 In        27.1259940109       27.2479655073       39.0153079049
 In        26.7459137065       23.5946629654       40.3721499080
 In        23.4424435716       26.4916576700       39.8104707216
  P        25.4809791130       28.3847544089       40.7422878763
  P        29.2951739220       29.4165080219       43.2814934731
  P        28.6422898206       25.6600072525       40.5465979503
 In        26.3057749640       32.4892561127       22.2663624881
 In        27.0931601721       30.1821674771       24.7076315261
 In        24.0141864741       33.1110955518       24.6279255859
  P        25.4377222577       31.5750769918       26.1570179756
  P        25.2692560462       34.6301221671       22.8855544903
  P        28.4312927499       34.5195520627       25.8719869749
  P        28.6090804705       31.3631580351       22.7911477697
 In        24.0294452716       30.1236873013       27.6670121333
 In        26.9561856603       33.0207149719       27.5705654126
 In        27.2488772071       30.1779505722       30.3133564101
 In        24.0057796993       33.1100881284       30.5670859641
  P        25.8160509818       31.6781657796       31.8104690579
  P        25.5586574144       34.6544165233       29.0967522855
  P        28.7636399833       34.7179731724       31.8707120468
  P        28.7062963964       31.5745038676       28.8079474801
 In        24.4581144144       30.2381326390       33.3769183867
 In        27.3189221334       33.1796764585       33.2028041850
 In        27.2237822110       30.3421068921       36.3259286454
 In        24.4090385646       33.2397432412       36.3438358145
  P        25.7683126671       31.6766690084       37.8317593432
  P        25.7964778862       34.6349499612       34.6583228631
  P        28.7365298809       34.5812137276       37.8472519373
  P        28.7299263408       31.7520725431       34.8539488904
 In        24.1591608095       30.0327531516       39.2417279623
 In        27.1887107548       33.1455705490       39.2714089759
 In        26.9517439213       30.0763005671       42.2134014883
 In        24.5691619997       32.6003609052       42.0357018743
  P        26.0427989087       31.8699325874       43.8244513773
  P        25.7746637331       34.6698388186       40.9176093520
  P        29.6145258714       35.3091740874       43.9531408729
  P        28.6495844387       31.6699613835       40.7045964355
 In        26.9743677634       36.0124920411       24.2276497915
 In        23.3494827753       39.2713881816       26.7079879277
  P        25.4443000367       37.5066824434       25.8596763592
  P        28.4076505165       40.7215541944       25.8031399658
  P        28.2847783321       37.7651106424       22.8124311117
 In        24.0349300160       35.9745172533       27.4923059774
 In        26.9342051091       39.2346147881       27.1883581784
 In        27.2090362478       36.2079674306       30.4235506137
 In        23.8935467563       39.1947296313       30.3673715276
  P        25.5873283109       37.8068539012       31.8509160371
  P        25.3247139476       40.6671741380       28.7249115271
  P        28.5807894346       40.6450500059       31.7076573551
  P        28.5336170194       37.6697298335       28.8512400965
 In        24.2797674788       36.2115228942       33.2476983661
 In        27.1999295840       39.1871342170       33.2474574526
 In        27.4094440145       35.9764259077       36.1356783066
 In        24.2901902416       39.0836784656       36.4147969149
  P        25.9189216229       37.4315750169       37.5574593245
  P        25.7993186161       40.6333674013       34.9344267025
  P        28.6996766998       40.5061379672       37.7181891083
  P        28.7151174838       37.6046468542       34.6641104054
 In        24.6156330725       36.5226846066       39.4136604482
 In        26.8693478759       39.1801577402       39.2040255868
 In        27.6999126262       35.5691971013       42.2515709644
  P        24.8398426361       40.3463312834       40.1519001615
  P        28.4611458508       37.6495626412       40.7235345720
 In        29.5790183947       42.9681223538       23.6228140334
 In        23.3370052287       42.9446840861       29.7181690247
 In        26.9855515310       42.0853320975       30.1175034525
  P        25.5342349625       43.7358237457       31.6689709220
  P        28.4891435332       43.6506324358       28.6688518332
 In        24.5782435763       41.7494138392       33.0393225096
 In        27.8187432452       44.7370056858       32.4133080251
 In        27.7006959250       41.9445516728       35.8009959753
  P        28.9067220872       43.8824042603       34.8472185217
  P        30.4181451144       23.2262783145       23.5564901612
  P        34.6238568800       22.3584325131       25.7821391808
 In        33.4810064722       21.2363902299       27.6656312499
 In        29.7697483739       21.2681913614       30.2263167315
  P        30.6959734875       20.0381299100       32.4510867217
  P        31.5216201854       22.5182598452       28.8104648326
  P        34.4829992478       22.5881565232       31.8734990613
  P        34.2443838233       19.3354355371       28.9882229421
 In        32.9223903407       21.0985950959       33.5340217039
 In        30.3419169884       21.6273797159       36.2137760626
  P        32.1553947635       19.8067717737       37.0934528419
  P        31.8504054579       23.0794687219       34.7171466336
  P        34.7722166459       22.7364658001       37.9766235622
  P        33.7434434692       19.6140335660       35.6527542547
 In        32.7099070240       21.6010773827       38.8551962844
  P        31.3911852027       22.5611533374       40.7759321481
 In        32.9388702408       26.8141663457       22.4598340370
 In        32.9795312448       23.8193835154       24.4347929818
 In        30.3690257366       27.0236716277       24.5200112435
  P        31.9282069561       25.7824481585       26.1009311285
  P        31.4307913206       28.7810607163       22.9109930840
  P        34.6720902062       28.5472709577       25.7248536490
  P        34.5264226678       25.1238261034       22.6578699769
 In        30.3138459757       24.2434176860       27.4099028688
 In        33.2840914815       27.2882123635       27.4283901709
 In        32.8892982878       24.0662903049       30.3321542347
 In        30.1028945410       27.2761463152       30.2682647539
  P        31.6141312135       25.8174401410       31.7548769105
  P        31.6957506906       28.7380776925       28.8045651938
  P        34.5458036629       28.5355981520       31.8978111805
  P        34.5456342859       25.6775293775       28.9326710977
 In        30.1644408397       24.4015979624       33.3249182733
 In        33.1101153067       27.1300180318       33.3632061407
 In        33.3446939890       24.2335889341       36.4045486131
 In        30.3215053201       27.1818759263       36.5267228410
  P        31.8331468344       25.6934138245       37.8330845089
  P        31.6479628259       28.5579243914       34.8788325087
  P        34.7776813890       28.7439782538       37.8646759704
  P        34.7118310638       25.7589786018       34.8497030963
 In        30.2138229393       24.1172067838       39.0941837219
 In        33.3424563304       27.2182741216       39.3368260492
 In        32.5333068577       24.4929023849       41.8516969519
 In        30.3086404144       27.1077674706       42.0883123559
  P        32.0318686494       26.1064343385       43.6434289010
  P        31.7065162717       28.6031107161       40.6130489059
  P        35.2000150839       29.3313155035       44.0671407948
  P        34.8160496738       25.6406754442       41.0058955084
 In        30.5927906043       30.7827838933       20.9736348634
 In        33.0648330677       33.2210630415       20.8306330704
 In        33.1468415041       30.1389112482       24.3031471884
 In        29.8902120948       33.1250784463       24.3188572011
  P        31.5842593091       31.6262763588       25.6820069319
  P        31.5658442052       34.4310783758       22.8999344574
  P        34.5895578271       34.4392368322       25.8871587008
  P        34.6487876297       31.7205890866       22.8388706145
 In        30.2009180089       30.1866075809       27.2850991273
 In        32.9667280640       33.0057030550       27.3798054865
 In        33.0892706160       30.0331711172       30.4059334006
 In        30.1111075148       33.0585368743       30.3247966096
  P        31.5838555704       31.6430006560       31.8530540723
  P        31.4867911975       34.6191197129       28.7843771794
  P        34.4926879424       34.4862666019       31.8964832579
  P        34.5972422520       31.5059852189       28.8409275627
 In        30.1447016335       30.1461791063       33.4119545419
 In        33.0663939553       33.0504485668       33.2846434809
 In        33.1380367751       30.1154588096       36.4015593314
 In        30.3005136092       33.1922713083       36.2907277056
  P        31.6381588716       31.5810463151       37.8015535650
  P        31.7624653767       34.6966388067       34.9042604539
  P        34.6544581632       34.4724600160       37.8345407600
  P        34.5993405076       31.5382118622       34.8693892164
 In        30.1355839910       30.1959889284       39.3713355909
 In        33.0850335302       32.9843088853       39.3233937783
 In        33.1709399914       29.8945265510       42.3055388756
 In        30.0051084465       33.1350541902       42.4653418618
  P        30.7793758156       30.8256036850       43.3846867263
  P        31.5384624028       34.3801146351       40.7969095084
  P        34.9586603081       35.1362315163       43.9761103060
  P        34.5312357469       31.6293844516       40.8767752409
 In        30.4052607618       36.5610181157       22.1441747494
 In        32.4256343626       38.7170063814       22.0386389085
 In        33.0481305298       36.0709258508       24.5342902981
 In        29.8271935312       39.0735648319       24.4740119007
  P        31.5258212011       37.6435373957       25.8593393416
  P        31.3839960050       40.8297797915       23.0677102214
  P        34.8299361628       40.4874526796       25.8214862988
  P        34.5844542728       37.4755738541       22.9859783251
 In        30.0377248704       36.1365447726       27.3371293365
 In        33.0785340046       39.0735902082       27.3477124507
 In        32.9740640889       36.0593478475       30.4018074407
 In        30.1188598646       39.1509879209       30.2479918648
  P        31.6657042885       37.6777728510       31.8165403282
  P        31.6861695448       40.5560884421       28.8510388406
  P        34.7184644408       40.6544165717       31.7178172476
  P        34.4820246165       37.5770505788       28.8589033742
 In        30.3764744240       36.1845917857       33.3338547194
 In        33.3372108985       39.0832415340       33.1921830029
 In        33.2584157641       36.2252811186       36.3610217030
 In        30.1859066361       38.9801252221       36.1442985640
  P        31.6751356991       37.5676504865       37.7955094409
  P        31.7352796073       40.4305694950       34.6741844814
  P        34.6741021020       40.5354862086       37.7976275225
  P        34.8148911629       37.6084897730       34.7995361622
 In        30.1674479017       36.1468671911       39.3632432041
 In        33.1203200990       39.0695949616       39.2795197443
 In        32.9532307697       35.8865847410       42.3740454628
 In        30.4567002900       38.6137530420       41.9709369941
  P        31.0150548750       36.8067147746       43.8231773580
  P        31.7882527309       40.6293812142       40.9367696641
  P        34.3590369122       37.4087303158       40.7387486207
 In        32.7496933483       41.7855955801       24.9581859327
  P        31.4458445318       43.7114568759       25.8701161110
 In        29.9663887702       41.9193487183       27.4257616292
 In        32.0279975606       44.9184787190       28.1312544470
 In        33.1800418527       42.0948803684       30.2682236098
 In        30.0784861216       44.6574667077       30.4172084278
  P        31.9437639051       43.6451216417       31.9937667291
  P        34.5185104595       43.7679324242       28.8192153572
 In        30.2652646721       42.0682170694       33.1665905619
 In        33.4140787725       45.9894010989       33.4139822800
 In        33.0889628853       41.8751845346       36.2725945115
 In        31.1260244325       45.1792234843       35.6978436130
  P        31.9430771220       43.4654576533       38.0797174982
  P        34.5036181906       43.5445539159       34.7338168424
 In        30.4906843362       41.5579337370       39.0112363219
 In        33.5466654699       42.9238784545       40.0981931533
 In        35.8980211303       20.8497428296       30.3000820721
  P        37.1837124655       19.4442247597       31.9909619197
  P        37.4171725107       22.6076033115       28.7560502032
  P        40.5778905953       22.4070050873       31.5859463008
 In        38.4860534656       21.3415476963       32.7813040535
 In        35.5675750776       21.3235603666       36.0275095634
  P        37.4235840111       22.6003885593       34.7331574172
  P        40.0263658292       23.1160749584       38.7131219680
  P        38.5603966697       23.0615845636       40.2922031420
 In        38.9897367175       23.6561602204       26.8004584527
 In        35.9730338866       26.8630974441       24.0162682407
  P        37.3150488753       25.5710679896       25.8497829970
  P        37.7254032259       28.2582867799       22.6576199954
  P        40.6932102163       28.3379932214       25.6735694475
 In        35.7365925900       24.1373782003       27.3940523884
 In        38.9632670746       27.1550042196       27.2561142516
 In        38.8801458248       24.0004348790       30.3560313729
 In        36.1923668929       27.0523775437       30.3122753976
  P        37.5584483026       25.5555805965       31.8614631482
  P        37.5879465925       28.6777459127       28.8825125819
  P        40.6018240724       28.7007922894       31.8862138038
  P        40.2382281982       25.5022104668       28.8037027236
 In        35.9356482758       24.1422255578       33.2957912996
 In        39.1100087268       26.9785857371       33.2607158298
 In        38.8778362017       24.0876195188       36.4616940587
 In        36.1026599170       27.4611386403       36.1443952754
  P        37.3616931474       25.7973085768       37.5565530084
  P        37.7297446960       28.6601342987       34.5939898197
  P        40.3032259580       28.4550317358       37.4984852262
  P        40.5809683395       25.5348590692       34.8507075880
 In        36.3979301008       24.1764745219       39.3615750219
 In        39.0358424736       26.7908606308       39.1096900909
 In        36.0219817521       27.6939343777       42.1014890353
  P        37.8426405090       28.7117196466       40.6579497761
  P        40.1906644213       24.6972593575       40.2295436183
 In        36.7128109944       30.4287426728       22.0853483673
 In        38.7824169699       32.4279145762       22.2236129677
 In        39.1604218719       29.7411411560       24.3434512831
 In        36.1606876306       33.1306582185       24.4501756002
  P        37.6746955834       31.4978985835       25.7531542602
  P        37.6667603165       34.6596877935       22.9502487858
  P        40.7296314734       34.7263658268       25.8751234911
  P        40.9744390873       31.2208128140       22.8745041411
 In        36.0848987310       30.1434481917       27.2139893133
 In        39.0827860226       33.0815938781       27.2084253614
 In        39.0462871629       30.1597468022       30.2828766092
 In        35.9869766741       33.0781200924       30.2535302655
  P        37.5334132415       31.6461767889       31.7866643890
  P        37.5781599485       34.5391922531       28.8575192995
  P        40.5736213604       34.6510903991       31.7653192748
  P        40.4800682312       31.6274281956       28.8645288386
 In        36.0356895900       30.1317604806       33.2387470651
 In        39.0956246109       33.0526821719       33.2286183001
 In        38.9882642747       30.2369804552       36.1154667734
 In        36.0234049687       33.1602856408       36.2286506674
  P        37.6089255468       31.6240941928       37.6868562906
  P        37.5468471297       34.6012709822       34.7114161499
  P        40.4711936804       34.7348011407       37.8897699531
  P        40.6349287387       31.7088958608       34.7739633030
 In        36.1746064555       30.2594984397       39.3715117997
 In        38.9123396971       33.0746558354       39.2981947406
 In        38.4840097073       30.6726675503       42.2133776216
 In        35.7300600754       33.0351325326       42.7054287152
  P        36.7417409955       30.8526980411       44.0867500172
  P        37.4331627708       34.1947478675       41.0142131158
  P        40.5675967678       31.6469137020       40.9977199106
 In        35.2244214300       35.2206970693       21.5905539129
 In        39.0523675926       36.2071411588       24.3957694935
 In        36.4001374510       38.7061090193       24.3623109707
  P        37.5069458764       37.2515696629       26.1303070480
  P        38.4285346619       39.8734270049       23.2818354524
  P        40.1633972164       40.0237789362       24.7533066219
  P        40.0305221096       38.3934304504       23.2431723072
 In        35.8924294612       35.8649289517       27.4944322446
 In        39.0852674309       39.0743276797       26.9589640532
 In        39.1006227077       36.1165260806       30.2534078132
 In        36.1782049715       39.1226199857       30.1813876001
  P        37.4743670539       37.5745859635       31.7803794333
  P        37.7056019400       40.6325727895       28.6949874689
  P        40.5544259054       40.6478222895       32.1016425093
  P        40.7547968603       37.7103498835       28.7447095279
 In        36.0173801062       36.0251282784       33.2170840121
 In        39.0256979013       39.1386820800       33.4634491541
 In        38.8106531603       36.0787851353       36.4345596111
 In        36.1807470618       39.0048425840       36.3890565273
  P        37.4153656204       37.6297062412       38.0471298070
  P        37.6370163990       40.6476637396       35.0283538952
  P        40.6237029370       40.6052149331       38.5014973230
  P        40.4557388628       37.5036487959       34.9698766018
 In        36.0152181373       35.9118739353       39.4321410884
 In        38.9310659626       39.0097106145       39.7872417492
 In        38.4981086328       36.1999320067       42.1997005638
 In        36.1390407607       38.4655529409       42.2144254266
  P        36.5006103794       36.6887807139       44.0082829793
  P        37.5415582482       40.4489006129       41.4048253944
  P        40.4615273523       37.7189476889       41.5511606792
 In        35.7720444923       41.9050753118       27.7162479911
 In        38.6192806840       41.6552025270       30.7319568774
 In        35.3315445391       44.7072727656       31.1393277643
  P        37.8895500815       43.6197791343       32.0165065243
 In        36.2028412717       42.0522145687       33.3432794503
 In        38.9613065037       41.7356487486       36.8939749168
 In        35.9496291406       43.5481057046       36.6792324569
  P        37.7066879390       43.4659465426       38.3886180880
 In        36.2320030698       41.6510487962       39.6975834292
 In        43.0322706969       29.1911187139       23.7647921910
 In        42.4455526810       23.5646030818       29.4175395749
 In        41.9328716596       27.0950559905       30.2020482968
  P        43.5341606963       25.3747489692       31.4836295390
  P        43.3799194286       28.2607641844       28.5128919769
 In        41.7096666998       24.3411457832       32.8654793145
 In        44.6978399748       27.6564118597       32.3842735060
 In        42.0420206707       27.4653538214       35.8091880355
  P        43.9523399139       28.6712869973       34.8162021016
 In        41.8560378329       32.6278557278       24.7570703680
  P        43.7465180349       31.2864156790       25.7630685113
 In        41.8219014395       29.9478206464       27.3148955446
 In        44.5553603938       32.0410575844       28.0313849483
 In        44.3901255408       29.9312808550       30.1433536838
 In        42.1748220017       33.0997186709       30.3669153368
  P        43.6207908513       31.6395605064       31.9163197473
  P        43.7961526490       34.5063545351       28.8379683505
 In        42.1848450713       30.1017983160       33.3841871028
 In        45.6714542194       33.1957193503       33.2442203324
 In        45.4482477866       31.0219870250       36.1030827698
 In        41.8182624046       33.0657749479       36.4487663031
  P        43.2995212089       31.7816003545       38.1877009691
  P        43.4579742547       34.2761628190       34.8279326591
 In        41.3508218131       30.2763039454       38.8790446333
 In        42.4291874632       33.4692574921       40.0324621588
 In        41.9720459894       35.7283206162       27.7500113413
 In        44.7022574703       35.4511691219       31.2338806097
 In        41.7805909257       38.6625977152       30.9183644820
  P        43.6825087222       37.6881723060       32.2889991322
 In        42.0583941835       36.0581373434       33.4910578007
 In        43.8374366014       35.9646109350       36.6866634423
 In        41.5132675068       38.7254348270       36.9578671697
  P        43.4673323713       37.6804245298       38.3480472838
 In        41.7057835929       36.2541167584       39.8944240677
 In        39.8470013660       42.9459575727       34.0024861292
     406
 i =      420, time =      210.000, E =    -12769.3296247805
  P        23.4852187307       23.4515810365       30.6363151660
  P        22.2790919468       28.4702245943       26.5652744395
 In        21.8604793701       26.9353238554       28.6258077493
  P        20.0381640787       27.3703484123       30.4521656737
  P        23.2218787834       28.7692067275       31.8050472719
  P        23.7297017188       25.1268403883       29.1714099979
 In        21.2703775825       27.2441081443       32.7839506012
  P        20.3760494909       29.4613676085       34.0469975499
  P        22.6301889785       28.5739876030       37.7792935730
  P        22.5425128739       25.7284502946       34.5335565184
  P        22.4093356201       34.6996687662       25.8322140437
  P        24.1425006582       31.0127818698       22.6124749012
 In        21.4148668278       33.6151228198       27.8892058772
 In        21.2546661982       29.7984648602       30.5420008780
  P        20.3273175082       30.9688657685       32.6515648523
  P        19.5425501792       34.2688745315       29.4072762111
  P        22.5470086756       34.6787118083       32.0188080771
  P        22.4839664878       31.5759436608       29.0904168852
 In        21.2607293189       33.2807588592       33.8036963918
 In        21.4007774111       30.5268610725       36.4160532087
  P        20.0199446319       32.4475635333       37.3070108023
  P        19.7966827369       34.0744015503       35.8272830543
  P        23.0313517499       34.8376757075       38.0570512425
  P        23.0139290417       31.7282381994       34.8811896448
 In        21.8049181776       32.9451570081       39.0265790614
  P        22.6192517925       31.4574271434       40.8449889582
 In        20.7422298772       36.2204705334       30.4924715476
  P        19.3680381994       37.5629199548       32.1134130214
  P        22.5518994754       40.8854693470       31.8191993461
  P        22.4104728175       37.5282751976       28.8329821463
 In        21.3088522205       38.8266506068       32.8949177146
 In        21.7157042775       35.8258087094       36.2142583504
  P        23.1987510177       40.2161743550       38.6956215891
  P        22.7479375124       37.6934039742       34.7830605431
  P        23.3824794390       38.6402925990       40.3144744974
  P        29.0102613296       23.2119246597       25.3736304452
 In        27.6525579243       21.9627757511       27.2187162653
  P        25.2990961318       22.5211598766       29.7156766122
  P        28.8262541775       22.9048138613       31.8631426052
  P        27.7201507367       20.2726577479       29.0586826678
 In        27.2943004966       21.6169368540       33.5538518477
  P        25.3131207854       22.5156995275       34.8458929890
  P        28.4904030083       22.5078881687       37.9104923897
  P        29.3832796324       20.1187233483       34.0711566678
 In        27.8875238973       28.7460850303       21.8422770401
 In        27.6936174130       25.0395694208       24.1531363632
 In        24.1616370437       27.7804611646       24.9708336155
  P        25.7525200217       25.7840154874       25.5911811980
  P        25.2750814237       29.2110971088       23.1089168903
  P        28.7951295438       28.5636020858       25.8327579282
  P        29.7722712613       25.1456208971       22.7773001130
 In        25.4756640119       23.9721896135       27.4975506608
 In        27.3401341570       27.1921800895       27.3824131964